<?xml version="1.0" encoding="UTF-8"?>

<!-- generated on 2025-11-13 00:21:19 by Eclipse SUMO sumo Version 1.18.0
<configuration xmlns:xsi="http://www.w3.org/2001/XMLSchema-instance" xsi:noNamespaceSchemaLocation="http://sumo.dlr.de/xsd/sumoConfiguration.xsd">

    <input>
        <net-file value="aljubail_saudi.net.xml"/>
        <route-files value="vTypes.add.xml,highway_enhanced.rou.xml"/>
        <additional-files value="aljubail_zones.poly.xml"/>
    </input>

    <output>
        <summary-output value="highway_summary.xml"/>
        <tripinfo-output value="highway_tripinfo.xml"/>
        <statistic-output value="highway_statistics.xml"/>
    </output>

    <time>
        <begin value="0"/>
        <end value="30"/>
        <step-length value="0.1"/>
    </time>

    <processing>
        <lateral-resolution value="1.0"/>
        <collision.action value="warn"/>
        <collision.check-junctions value="true"/>
        <time-to-teleport value="-1"/>
        <max-depart-delay value="900"/>
        <pedestrian.model value="nonInteracting"/>
    </processing>

    <routing>
        <routing-algorithm value="dijkstra"/>
        <device.rerouting.probability value="0.95"/>
        <device.rerouting.adaptation-steps value="120"/>
        <device.rerouting.adaptation-interval value="15"/>
    </routing>

    <report>
        <verbose value="true"/>
        <duration-log.disable value="true"/>
        <duration-log.statistics value="true"/>
        <no-step-log value="true"/>
    </report>

    <emissions>
        <device.emissions.probability value="1.0"/>
    </emissions>

    <random_number>
        <seed value="56"/>
    </random_number>

</configuration>
-->

<tripinfos xmlns:xsi="http://www.w3.org/2001/XMLSchema-instance" xsi:noNamespaceSchemaLocation="http://sumo.dlr.de/xsd/tripinfo_file.xsd">
</tripinfos>
