<?xml version="1.0" encoding="UTF-8"?>

<!-- generated on 2025-11-12 23:24:23 by Eclipse SUMO GUI Version 1.18.0
<configuration xmlns:xsi="http://www.w3.org/2001/XMLSchema-instance" xsi:noNamespaceSchemaLocation="http://sumo.dlr.de/xsd/sumoConfiguration.xsd">

    <input>
        <net-file value="aljubail_saudi.net.xml"/>
        <route-files value="vTypes.add.xml,urban_enhanced.rou.xml"/>
        <additional-files value="aljubail_zones.poly.xml"/>
    </input>

    <output>
        <summary-output value="urban_summary.xml"/>
        <tripinfo-output value="urban_tripinfo.xml"/>
        <statistic-output value="urban_statistics.xml"/>
    </output>

    <time>
        <begin value="0"/>
        <end value="20"/>
        <step-length value="0.1"/>
    </time>

    <processing>
        <lateral-resolution value="0.8"/>
        <collision.action value="warn"/>
        <collision.check-junctions value="true"/>
        <time-to-teleport value="-1"/>
        <max-depart-delay value="600"/>
        <pedestrian.model value="striping"/>
        <pedestrian.striping.stripe-width value="0.65"/>
        <pedestrian.striping.dawdling value="0.3"/>
        <pedestrian.striping.jamtime value="10"/>
    </processing>

    <routing>
        <routing-algorithm value="dijkstra"/>
        <device.rerouting.probability value="0.9"/>
        <device.rerouting.adaptation-steps value="90"/>
        <device.rerouting.adaptation-interval value="5"/>
    </routing>

    <report>
        <verbose value="true"/>
        <duration-log.statistics value="true"/>
        <no-step-log value="true"/>
    </report>

    <emissions>
        <device.emissions.probability value="1.0"/>
    </emissions>

    <random_number>
        <seed value="23"/>
    </random_number>

    <gui_only>
        <quit-on-end value="true"/>
        <start value="true"/>
    </gui_only>

</configuration>
-->

<tripinfos xmlns:xsi="http://www.w3.org/2001/XMLSchema-instance" xsi:noNamespaceSchemaLocation="http://sumo.dlr.de/xsd/tripinfo_file.xsd">
</tripinfos>
